HEADER
"PSFversion" "1.00"
"PM4n PM3n" "gpdk045_pmos1v_3_spectre"
"NM0n NM1n" "gpdk045_nmos1v_3_spectre"
"Av" ":1v"
"Bv" ":2v"
"outv" ":3v"
