HEADER
"PSFversion" "1.00"
"design" "(\"devices\" \"comparator_tb\" \"schematic\" \"\")"
"simulator" "spectre"
"temperature" "27"
"host" ""
"date" "May  6 14:17:16 2023"
"title" ""
"analysisList" "()"
END
