HEADER
"PSFversion" "1.00"
"design" "(\"devices\" \"comparator_tb\" \"config\" \"\")"
"simulator" "spectre"
"temperature" "27"
"host" ""
"date" "May  3 21:11:07 2023"
"title" ""
"analysisList" "()"
END
