HEADER
"PSFversion" "1.00"
"design" "(\"devices\" \"nand2_pulse_tb\" \"schematic\" \"\")"
"simulator" "spectre"
"temperature" "27"
"host" ""
"date" "May  6 14:18:31 2023"
"title" ""
"analysisList" "()"
END
