HEADER
"PSFversion" "1.00"
"design" "(\"devices\" \"nor2_pulse_tb\" \"schematic\" \"\")"
"simulator" "spectre"
"temperature" "27"
"host" ""
"date" "May  6 14:19:50 2023"
"title" ""
"analysisList" "()"
END
