HEADER
"PSFversion" "1.00"
"C0n" "analogLib_cap_spectre"
"I1n" "inverter"
"V0n" "analogLib_vdc_spectre"
"V1n" "analogLib_vpulse_spectre"
