HEADER
"PSFversion" "1.00"
"__NEXT_FILE__" "nor3_pulse_tb"
