HEADER
"PSFversion" "1.00"
"I19n I8n I7n I6n I5n I4n I3n I2n I1n" "inverter"
"I21n I20n I18n I17n I14n I13n I12n I11n I10n I9n" "nand2"
"I22n I16n I15n" "nand3"
"I23n" "nor2"
"I24n" "nor3"
"A0v" ":1v"
"A1v" ":2v"
"A2v" ":3v"
"A3v" ":4v"
"B0v" ":5v"
"B1v" ":6v"
"B2v" ":7v"
"B3v" ":8v"
"Ev" ":9v"
"Gv" ":10v"
"Lv" ":11v"
