HEADER
"PSFversion" "1.00"
"design" "(\"devices\" \"nand2_pulse_tb\" \"config\" \"\")"
"simulator" "spectre"
"temperature" "27"
"host" ""
"date" "May  3 21:15:28 2023"
"title" ""
"analysisList" "()"
END
