HEADER
"PSFversion" "1.00"
"NM1n NM0n" "gpdk045_nmos1v_3_spectre"
"PM1n PM0n" "gpdk045_pmos1v_3_spectre"
"Av" ":1v"
"Bv" ":2v"
"outv" ":3v"
