HEADER
"PSFversion" "1.00"
"Time Stamp" "May  6 14:11:24 2023"
TYPE
"variable" STRUCT(
"value" FLOAT DOUBLE
) PROP( "key" "element" )
VALUE
"vSupply" "variable" ( 1.1 ) PROP( )
"temp" "variable" ( 27 ) PROP( )
END
