HEADER
"PSFversion" "1.00"
"design" "(\"devices\" \"inverter_pulse_tb\" \"config\" \"\")"
"simulator" "spectre"
"temperature" "27"
"host" ""
"date" "May  6 14:11:20 2023"
"title" ""
"analysisList" "()"
END
