HEADER
"PSFversion" "1.00"
"C0n" "analogLib_cap_spectre"
"V0n" "analogLib_vdc_spectre"
"V4n V1n V2n" "analogLib_vpulse_spectre"
"I7n" "nand3"
