HEADER
"PSFversion" "1.00"
"PM0n" "gpdk045_pmos1v_spectre"
"NM0n" "gpdk045_nmos1v_spectre"
"inv" ":1v"
"outv" ":2v"
