HEADER
"PSFversion" "1.00"
"__NEXT_FILE__" "nand3_pulse_tb"
